 Gaussian 09, Revision A.02,
 Gaussian 09:  EM64L-G09RevA.02 11-Jun-2009

 -------------------------------------------------------
 #HF/6-31G* nosymm SCF=Tight opt=(Z-MATRIX,MaxCycle=200)
 -------------------------------------------------------

 ---------------
 Mol-Water Dimer
 ---------------
 Symbolic Z-matrix:
 Charge =  0 Multiplicity = 1

 SCF Done:  E(RHF) =  -230.094302939     A.U. after   12 cycles
 SCF Done:  E(RHF) =  -230.094333155     A.U. after   11 cycles
 SCF Done:  E(RHF) =  -230.094401746     A.U. after   10 cycles
 SCF Done:  E(RHF) =  -230.094427473     A.U. after   11 cycles
 SCF Done:  E(RHF) =  -230.094454047     A.U. after    8 cycles
 SCF Done:  E(RHF) =  -230.094375024     A.U. after   12 cycles
 SCF Done:  E(RHF) =  -230.094477465     A.U. after   12 cycles
 SCF Done:  E(RHF) =  -230.094477595     A.U. after    7 cycles
 SCF Done:  E(RHF) =  -230.094477616     A.U. after    6 cycles
 Optimization completed.
    -- Stationary point found.

                         Z-Matrix orientation:
 ---------------------------------------------------------------------
 Center     Atomic      Atomic             Coordinates (Angstroms)
 Number     Number       Type             X           Y           Z
 ---------------------------------------------------------------------
      1          6           0       -1.209050   -0.236510   -0.019180
      2          6           0        0.089910    0.552930    0.044910
      3          8           0        1.222000   -0.262490   -0.110010
      4          1           0       -2.067380    0.423870    0.062070
      5          1           0       -1.267690   -0.957740    0.792470
      6          1           0       -1.276370   -0.778020   -0.956280
      7          1           0        0.145550    1.112980    0.976650
      8          1           0        0.131480    1.270430   -0.764030
      9          1           0        1.273180   -0.870090    0.614760
     10         -1           0        1.222000   -0.262490   -0.110010
     11         -1           0        2.092530    0.120650    1.387480
     12         -1           0        1.543360   -4.077620    4.440830
     13          8           0        1.383165   -2.175862    2.172329
     14          1           0        1.130369   -3.088911    2.173801
     15          1           0        1.697906   -1.998232    3.048087
 ---------------------------------------------------------------------

 Alpha  occ. eigenvalues --  -20.58762 -20.52054 -11.25158 -11.19954  -1.37524
 Alpha  occ. eigenvalues --   -1.33089  -0.99414  -0.83129  -0.74229  -0.67184
 Alpha  occ. eigenvalues --   -0.60789  -0.60154  -0.57952  -0.52749  -0.52519
 Alpha  occ. eigenvalues --   -0.50763  -0.45477  -0.41130
 Alpha virt. eigenvalues --    0.18660   0.26464   0.28737   0.31082   0.32222
 Alpha virt. eigenvalues --    0.33189   0.35793   0.36182   0.42892   0.47439
 Alpha virt. eigenvalues --    0.74510   0.76420   0.80636   0.83934   0.91405

 Mulliken atomic charges:
              1
     1  C   -0.502044
     2  C    0.020759
     3  O   -0.782254
     4  H    0.148115
     5  H    0.153187
     6  H    0.169179
     7  H    0.127053
     8  H    0.156827
     9  H    0.490809
    10  O   -0.880984
    11  H    0.449993
    12  H    0.449359
 Sum of Mulliken atomic charges =   0.00000

 Dipole moment (field-independent basis, Debye):
    X=             -0.8512    Y=             -1.9998    Z=              3.4360  Tot=              4.0656
 Quadrupole moment (field-independent basis, Debye-Ang):
   XX=            -28.7497   YY=            -16.5733   ZZ=            -16.1962
   XY=             -2.9633   XZ=              5.9139   YZ=             -8.5571

 Normal termination of Gaussian 09 at Fri Jun 23 12:09:33 2017.
