 Gaussian 09, Revision A.02,
 Gaussian 09:  EM64L-G09RevA.02 11-Jun-2009

 -----------------------------------------------------
 #HF/6-31G* nosymm scf=tight pop=nbo prop=(read,field)
 -----------------------------------------------------

 ---
 Mol
 ---
 Symbolic Z-matrix:
 Charge =  0 Multiplicity = 1

                          Input orientation:
 ---------------------------------------------------------------------
 Center     Atomic      Atomic             Coordinates (Angstroms)
 Number     Number       Type             X           Y           Z
 ---------------------------------------------------------------------
      1          6           0       -1.209050   -0.236510   -0.019180
      2          6           0        0.089910    0.552930    0.044910
      3          8           0        1.222000   -0.262490   -0.110010
      4          1           0       -2.067380    0.423870    0.062070
      5          1           0       -1.267690   -0.957740    0.792470
      6          1           0       -1.276370   -0.778020   -0.956280
      7          1           0        0.145550    1.112980    0.976650
      8          1           0        0.131480    1.270430   -0.764030
      9          1           0        1.273180   -0.870090    0.614760
 ---------------------------------------------------------------------

 SCF Done:  E(RHF) =  -154.075575741     A.U. after   12 cycles

 Alpha  occ. eigenvalues --  -20.55338 -11.27062 -11.21497  -1.36050  -1.01212
 Alpha  occ. eigenvalues --   -0.85066  -0.68995  -0.62473  -0.60497  -0.54446
 Alpha  occ. eigenvalues --   -0.52667  -0.47743  -0.43623
 Alpha virt. eigenvalues --    0.22323   0.27278   0.29762   0.31192   0.31980
 Alpha virt. eigenvalues --    0.34305   0.40734   0.42497   0.72898   0.74882
 Alpha virt. eigenvalues --    0.79045   0.81836   0.89763   0.91717   1.07789

 Mulliken atomic charges:
              1
     1  C   -0.502731
     2  C    0.008917
     3  O   -0.733922
     4  H    0.159313
     5  H    0.149263
     6  H    0.177256
     7  H    0.138794
     8  H    0.169827
     9  H    0.433282
 Sum of Mulliken atomic charges =   0.00000

 Dipole moment (field-independent basis, Debye):
    X=             -1.2301    Y=             -0.1340    Z=              1.3378  Tot=              1.8223
 Quadrupole moment (field-independent basis, Debye-Ang):
   XX=            -22.3062   YY=            -18.5228   ZZ=            -19.0326
   XY=             -1.0461   XZ=              2.0582   YZ=             -1.5002

 Summary of Natural Population Analysis:

                                       Natural Population
                Natural  -----------------------------------------------
    Atom  No    Charge         Core      Valence    Rydberg      Total
 -----------------------------------------------------------------------
      C    1   -0.66898      1.99948     4.65936    0.01015     6.66898
      C    2   -0.02398      1.99934     4.00410    0.02054     6.02398
      O    3   -0.79607      1.99984     6.78197    0.01427     8.79607
      H    4    0.21688      0.00000     0.78233    0.00079     0.78312
      H    5    0.20485      0.00000     0.79409    0.00106     0.79515
      H    6    0.22194      0.00000     0.77681    0.00125     0.77806
      H    7    0.17325      0.00000     0.82521    0.00154     0.82675
      H    8    0.19931      0.00000     0.79944    0.00125     0.80069
      H    9    0.47280      0.00000     0.52586    0.00134     0.52720
 =======================================================================
   * Total *    0.00000      5.99866    19.94917    0.05218    26.00000

 Normal termination of Gaussian 09 at Fri Jun 23 12:04:59 2017.
