 Gaussian 09, Revision A.02,
 Gaussian 09:  EM64L-G09RevA.02 11-Jun-2009

 -------------------------------------------------------
 #HF/6-31G* nosymm SCF=Tight opt=(Z-MATRIX,MaxCycle=200)
 -------------------------------------------------------

 ---------------
 Mol-Water Dimer
 ---------------
 Symbolic Z-matrix:
 Charge =  0 Multiplicity = 1

 SCF Done:  E(RHF) =  -230.094109465     A.U. after   12 cycles
 SCF Done:  E(RHF) =  -230.094269587     A.U. after   12 cycles
 SCF Done:  E(RHF) =  -230.094396561     A.U. after   12 cycles
 SCF Done:  E(RHF) =  -230.094422156     A.U. after   12 cycles
 SCF Done:  E(RHF) =  -230.094424262     A.U. after    9 cycles
 SCF Done:  E(RHF) =  -230.094425081     A.U. after    7 cycles
 SCF Done:  E(RHF) =  -230.094425494     A.U. after    7 cycles
 SCF Done:  E(RHF) =  -230.094111570     A.U. after   13 cycles
 SCF Done:  E(RHF) =  -230.094301064     A.U. after   13 cycles
 SCF Done:  E(RHF) =  -230.094348764     A.U. after    9 cycles
 SCF Done:  E(RHF) =  -230.094373009     A.U. after    9 cycles
 SCF Done:  E(RHF) =  -230.094425558     A.U. after   12 cycles
 SCF Done:  E(RHF) =  -230.094425889     A.U. after    7 cycles
 SCF Done:  E(RHF) =  -230.094425901     A.U. after    7 cycles
 Optimization completed.
    -- Stationary point found.

                         Z-Matrix orientation:
 ---------------------------------------------------------------------
 Center     Atomic      Atomic             Coordinates (Angstroms)
 Number     Number       Type             X           Y           Z
 ---------------------------------------------------------------------
      1          6           0       -1.209050   -0.236510   -0.019180
      2          6           0        0.089910    0.552930    0.044910
      3          8           0        1.222000   -0.262490   -0.110010
      4          1           0       -2.067380    0.423870    0.062070
      5          1           0       -1.267690   -0.957740    0.792470
      6          1           0       -1.276370   -0.778020   -0.956280
      7          1           0        0.145550    1.112980    0.976650
      8          1           0        0.131480    1.270430   -0.764030
      9          1           0        1.273180   -0.870090    0.614760
     10         -1           0        0.245700   -0.341150    1.026060
     11         -1           0        2.041350    0.728250    0.662710
     12          1           0        2.542305   -0.156113   -1.646380
     13         -1           0        3.361656    0.834628   -0.873659
     14          8           0        3.158936   -0.106431   -2.363921
     15          1           0        2.912909   -0.801693   -2.958605
 ---------------------------------------------------------------------

 Alpha  occ. eigenvalues --  -20.57865 -20.52106 -11.28480 -11.22605  -1.38467
 Alpha  occ. eigenvalues --   -1.31190  -1.02549  -0.86560  -0.71356  -0.68263
 Alpha  occ. eigenvalues --   -0.63974  -0.62154  -0.56315  -0.54451  -0.53227
 Alpha  occ. eigenvalues --   -0.49294  -0.46502  -0.45631
 Alpha virt. eigenvalues --    0.20402   0.25628   0.26263   0.28844   0.30097
 Alpha virt. eigenvalues --    0.31047   0.33137   0.38416   0.41077   0.44589
 Alpha virt. eigenvalues --    0.71739   0.73795   0.77800   0.80184   0.88735

 Mulliken atomic charges:
              1
     1  C   -0.505055
     2  C    0.002696
     3  O   -0.752240
     4  H    0.167412
     5  H    0.153070
     6  H    0.177142
     7  H    0.150523
     8  H    0.180804
     9  H    0.445431
    10  H    0.482804
    11  O   -0.922529
    12  H    0.419941
 Sum of Mulliken atomic charges =   0.00000

 Dipole moment (field-independent basis, Debye):
    X=             -3.3215    Y=             -1.4616    Z=              2.0101  Tot=              4.1484
 Quadrupole moment (field-independent basis, Debye-Ang):
   XX=            -40.0119   YY=            -23.9946   ZZ=            -25.9938
   XY=             -4.7957   XZ=              7.2001   YZ=              2.7453

 Normal termination of Gaussian 09 at Fri Jun 23 14:10:10 2017.
