 Gaussian 09, Revision A.02,
 Gaussian 09:  EM64L-G09RevA.02 11-Jun-2009

 ----------------------------------
 #HF/6-31G* nosymm opt=ModRedundant
 ----------------------------------

 -----------------
 Mol dihedral scan
 -----------------
 Symbolic Z-matrix:
 Charge =  0 Multiplicity = 1

 SCF Done:  E(RHF) =  -154.072910789     A.U. after   12 cycles
 SCF Done:  E(RHF) =  -154.074472619     A.U. after   11 cycles
 SCF Done:  E(RHF) =  -154.074724043     A.U. after   10 cycles
 SCF Done:  E(RHF) =  -154.074727483     A.U. after    8 cycles
 SCF Done:  E(RHF) =  -154.074727946     A.U. after    7 cycles
 Optimization completed.
    -- Stationary point found.
 SCF Done:  E(RHF) =  -154.073115865     A.U. after   10 cycles
 SCF Done:  E(RHF) =  -154.074129500     A.U. after   10 cycles
 SCF Done:  E(RHF) =  -154.074200871     A.U. after   10 cycles
 SCF Done:  E(RHF) =  -154.074201832     A.U. after    8 cycles
 Optimization completed.
 SCF Done:  E(RHF) =  -154.072655383     A.U. after   10 cycles
 SCF Done:  E(RHF) =  -154.074688068     A.U. after    9 cycles
 SCF Done:  E(RHF) =  -154.074120761     A.U. after   11 cycles
 SCF Done:  E(RHF) =  -154.075218010     A.U. after   10 cycles
 SCF Done:  E(RHF) =  -154.075219008     A.U. after    8 cycles
 SCF Done:  E(RHF) =  -154.074538788     A.U. after   11 cycles
 SCF Done:  E(RHF) =  -154.075602498     A.U. after   10 cycles
 SCF Done:  E(RHF) =  -154.075604413     A.U. after    8 cycles
    -- Stationary point found.
 SCF Done:  E(RHF) =  -154.074697059     A.U. after   11 cycles
 SCF Done:  E(RHF) =  -154.075743697     A.U. after   10 cycles
 SCF Done:  E(RHF) =  -154.075744833     A.U. after    8 cycles
 Optimization completed.
    -- Stationary point found.

                          Input orientation:
 ---------------------------------------------------------------------
 Center     Atomic      Atomic             Coordinates (Angstroms)
 Number     Number       Type             X           Y           Z
 ---------------------------------------------------------------------
      1          6           0       -1.269279   -0.228785    0.003877
      2          6           0        0.056636    0.495294   -0.117495
      3          8           0        1.047467   -0.457085   -0.407213
      4          1           0       -2.068260    0.471008    0.228843
      5          1           0       -1.223117   -0.968080    0.795621
      6          1           0       -1.505886   -0.738424   -0.923376
      7          1           0        0.284687    1.014837    0.811486
      8          1           0        0.002502    1.243751   -0.906060
      9          1           0        1.887412   -0.028116   -0.488062
 ---------------------------------------------------------------------

 Alpha  occ. eigenvalues --  -20.55277 -11.27051 -11.20867  -1.35975  -1.01157
 Alpha  occ. eigenvalues --   -0.83606  -0.70233  -0.64540  -0.56889  -0.53386
 Alpha  occ. eigenvalues --   -0.52478  -0.48295  -0.43524
 Alpha virt. eigenvalues --    0.22696   0.26575   0.31212   0.31277   0.32938
 Alpha virt. eigenvalues --    0.35230   0.40344   0.41416   0.72499   0.75658
 Alpha virt. eigenvalues --    0.79199   0.82125   0.90646   0.93676   1.08950

 Mulliken atomic charges:
              1
     1  C   -0.486232
     2  C    0.007136
     3  O   -0.735151
     4  H    0.154374
     5  H    0.174452
     6  H    0.174441
     7  H    0.136628
     8  H    0.136629
     9  H    0.437723
 Sum of Mulliken atomic charges =   0.00000

 Dipole moment (field-independent basis, Debye):
    X=              0.3105    Y=              1.7011    Z=              0.1757  Tot=              1.7381
 Quadrupole moment (field-independent basis, Debye-Ang):
   XX=            -16.7435   YY=            -20.8176   ZZ=            -20.1301
   XY=              1.7620   XZ=             -0.3657   YZ=             -0.6857

 Normal termination of Gaussian 09 at Fri Jun 23 14:11:43 2017.
