 Gaussian 09, Revision A.02,
 Gaussian 09:  EM64L-G09RevA.02 11-Jun-2009

 ----------
 # opt ram1
 ----------

 ---
 Mol
 ---
 Symbolic Z-matrix:
 Charge =  0 Multiplicity = 1

 SCF Done:  E(RAM1) = -0.995182480410E-01 A.U. after   12 cycles
 SCF Done:  E(RAM1) = -0.102237271981     A.U. after   11 cycles
 SCF Done:  E(RAM1) = -0.102392085624     A.U. after   11 cycles
 SCF Done:  E(RAM1) = -0.102416966995     A.U. after   10 cycles
 SCF Done:  E(RAM1) = -0.102425140523     A.U. after   10 cycles
 SCF Done:  E(RAM1) = -0.102432199876     A.U. after   10 cycles
 SCF Done:  E(RAM1) = -0.102433119011     A.U. after    9 cycles
 SCF Done:  E(RAM1) = -0.102433263418     A.U. after    8 cycles
 Optimization completed.
    -- Stationary point found.

                         Standard orientation:
 ---------------------------------------------------------------------
 Center     Atomic      Atomic             Coordinates (Angstroms)
 Number     Number       Type             X           Y           Z
 ---------------------------------------------------------------------
      1          6           0       -1.200164   -0.238592   -0.023483
      2          6           0        0.081535    0.558788    0.049770
      3          8           0        1.228678   -0.256649   -0.102692
      4          1           0       -2.079177    0.447023    0.020466
      5          1           0       -1.265048   -0.957923    0.828140
      6          1           0       -1.242524   -0.818807   -0.976402
      7          1           0        0.140417    1.117715    1.023028
      8          1           0        0.149490    1.292716   -0.798451
      9          1           0        1.179193   -0.948708    0.567034
 ---------------------------------------------------------------------

 The electronic state is 1-A.
 Alpha  occ. eigenvalues --   -1.40425  -1.15137  -0.87042  -0.65983  -0.58786
 Alpha  occ. eigenvalues --   -0.56774  -0.50022  -0.47572  -0.44126  -0.40600
 Alpha virt. eigenvalues --    0.13419   0.13837   0.15176   0.15353   0.16882
 Alpha virt. eigenvalues --    0.17482   0.17978   0.23222

 Mulliken atomic charges:
              1
     1  C   -0.253838
     2  C   -0.024369
     3  O   -0.327115
     4  H    0.084197
     5  H    0.072715
     6  H    0.088328
     7  H    0.060722
     8  H    0.104419
     9  H    0.194940
 Sum of Mulliken atomic charges =   0.00000

 Dipole moment (field-independent basis, Debye):
    X=             -1.3683    Y=             -0.1114    Z=              0.9775  Tot=              1.6853
 N-N= 6.569065563083D+01 E-N=-7.820653386586D+01  KE=-3.925026992094D+01
 1\1\GINC-BLOGIN3\FOpt\RAM1\ZDO\C2H6O1\RUPAKHETIC\23-Jun-2017\0\\# opt
 ram1\\Mol\\0,1\C,1.0801326995,-0.0084343171,-0.0649458315\C,2.59132153
 19,-0.0184802386,-0.0768691012\O,3.1210697595,0.552361481,-1.259081023
 6\H,0.7036715137,-0.3914820923,0.9129155664\H,0.6760935322,-0.65439285
 74,-0.8812787085\H,0.6975600052,1.0293178761,-0.2172826867\H,2.9773374
 638,-1.0670776187,0.0436812136\H,3.0058649644,0.6212969479,0.748712625
 7\H,2.7373485296,0.075490819,-2.004252054\\Version=EM64L-G09RevA.02\St
 ate=1-A\HF=-0.1024333\RMSD=5.788e-09\RMSF=1.493e-05\Dipole=-0.4632519,
 -0.4610754,0.1115224\PG=C01 [X(C2H6O1)]\\@

 Normal termination of Gaussian 09 at Fri Jun 23 14:09:43 2017.
