 Gaussian 09, Revision A.02,
 Gaussian 09:  EM64L-G09RevA.02 11-Jun-2009

 ----------------------------------
 #HF/6-31G* nosymm opt=ModRedundant
 ----------------------------------

 -----------------
 Mol dihedral scan
 -----------------
 Symbolic Z-matrix:
 Charge =  0 Multiplicity = 1

 SCF Done:  E(RHF) =  -154.073829158     A.U. after   11 cycles
 SCF Done:  E(RHF) =  -154.075437854     A.U. after   11 cycles
 SCF Done:  E(RHF) =  -154.075739359     A.U. after   10 cycles
 SCF Done:  E(RHF) =  -154.075744088     A.U. after    9 cycles
 Optimization completed.
    -- Stationary point found.
 SCF Done:  E(RHF) =  -154.074554309     A.U. after   11 cycles
 SCF Done:  E(RHF) =  -154.075513988     A.U. after   10 cycles
 SCF Done:  E(RHF) =  -154.075603256     A.U. after   10 cycles
 SCF Done:  E(RHF) =  -154.075604337     A.U. after    8 cycles
 SCF Done:  E(RHF) =  -154.075604442     A.U. after    8 cycles
 Optimization completed.
 SCF Done:  E(RHF) =  -154.074149529     A.U. after   11 cycles
 SCF Done:  E(RHF) =  -154.073765169     A.U. after    9 cycles
 SCF Done:  E(RHF) =  -154.072425094     A.U. after   11 cycles
 SCF Done:  E(RHF) =  -154.073628639     A.U. after   10 cycles
 SCF Done:  E(RHF) =  -154.073632851     A.U. after    9 cycles
 SCF Done:  E(RHF) =  -154.072592447     A.U. after   11 cycles
 SCF Done:  E(RHF) =  -154.073791515     A.U. after   10 cycles
 SCF Done:  E(RHF) =  -154.073795295     A.U. after    8 cycles
    -- Stationary point found.
 SCF Done:  E(RHF) =  -154.073033942     A.U. after   11 cycles
 SCF Done:  E(RHF) =  -154.074195061     A.U. after   10 cycles
 SCF Done:  E(RHF) =  -154.074201648     A.U. after    9 cycles
 Optimization completed.
    -- Stationary point found.

                          Input orientation:
 ---------------------------------------------------------------------
 Center     Atomic      Atomic             Coordinates (Angstroms)
 Number     Number       Type             X           Y           Z
 ---------------------------------------------------------------------
      1          6           0       -1.134523   -0.236475   -0.005730
      2          6           0        0.081445    0.673192   -0.076259
      3          8           0        1.248490   -0.051567   -0.381457
      4          1           0       -2.038069    0.338746    0.176821
      5          1           0       -1.027910   -0.965162    0.792329
      6          1           0       -1.251372   -0.775087   -0.939308
      7          1           0        0.200835    1.222798    0.854147
      8          1           0       -0.051470    1.405578   -0.863879
      9          1           0        1.743795   -0.214944    0.406806
 ---------------------------------------------------------------------

 Alpha  occ. eigenvalues --  -20.55205 -11.27084 -11.20966  -1.35871  -1.01067
 Alpha  occ. eigenvalues --   -0.84389  -0.70010  -0.62937  -0.57975  -0.55100
 Alpha  occ. eigenvalues --   -0.52334  -0.47549  -0.43474
 Alpha virt. eigenvalues --    0.22058   0.26967   0.30401   0.31668   0.32439
 Alpha virt. eigenvalues --    0.34334   0.41526   0.41906   0.72842   0.74803
 Alpha virt. eigenvalues --    0.80281   0.81842   0.89591   0.92307   1.08413

 Mulliken atomic charges:
              1
     1  C   -0.485109
     2  C    0.001378
     3  O   -0.739001
     4  H    0.151719
     5  H    0.154955
     6  H    0.176184
     7  H    0.137688
     8  H    0.163282
     9  H    0.438904
 Sum of Mulliken atomic charges =   0.00000

 Dipole moment (field-independent basis, Debye):
    X=             -0.4312    Y=              0.5010    Z=              1.7043  Tot=              1.8280
 Quadrupole moment (field-independent basis, Debye-Ang):
   XX=            -19.6608   YY=            -19.7506   ZZ=            -19.7735
   XY=             -0.4804   XZ=              3.3167   YZ=             -0.4900

 Normal termination of Gaussian 09 at Tue Aug 22 03:07:47 2017.
