 Gaussian 16, Revision A.03,
 Gaussian 16:  ES64L-G16RevA.03 25-Dec-2016

 ----------
 # opt ram1
 ----------

 ---
 Mol
 ---
 Symbolic Z-matrix:
 Charge =  0 Multiplicity = 1

 SCF Done:  E(RAM1) = -0.995182431985E-01 A.U. after   12 cycles
 SCF Done:  E(RAM1) = -0.102237268737     A.U. after   11 cycles
 SCF Done:  E(RAM1) = -0.102392082558     A.U. after   10 cycles
 SCF Done:  E(RAM1) = -0.102416963958     A.U. after   10 cycles
 SCF Done:  E(RAM1) = -0.102425137362     A.U. after   10 cycles
 SCF Done:  E(RAM1) = -0.102431828840     A.U. after   10 cycles
 SCF Done:  E(RAM1) = -0.102433072835     A.U. after    9 cycles
 SCF Done:  E(RAM1) = -0.102433256421     A.U. after    9 cycles
 Optimization completed.
    -- Stationary point found.

                         Standard orientation:
 ---------------------------------------------------------------------
 Center     Atomic      Atomic             Coordinates (Angstroms)
 Number     Number       Type             X           Y           Z
 ---------------------------------------------------------------------
      1          6           0       -1.200180   -0.238600   -0.023483
      2          6           0        0.081531    0.558796    0.049770
      3          8           0        1.228697   -0.256641   -0.102689
      4          1           0       -2.079200    0.447015    0.020434
      5          1           0       -1.265076   -0.957918    0.828160
      6          1           0       -1.242519   -0.818840   -0.976394
      7          1           0        0.140412    1.117698    1.023044
      8          1           0        0.149451    1.292763   -0.798430
      9          1           0        1.179245   -0.948766    0.566977
 ---------------------------------------------------------------------

 The electronic state is 1-A.
 Alpha  occ. eigenvalues --   -1.40423  -1.15137  -0.87042  -0.65982  -0.58786
 Alpha  occ. eigenvalues --   -0.56774  -0.50022  -0.47572  -0.44126  -0.40600
 Alpha virt. eigenvalues --    0.13419   0.13838   0.15175   0.15353   0.16882
 Alpha virt. eigenvalues --    0.17482   0.17978   0.23222

 Mulliken charges:
               1
     1  C   -0.253838
     2  C   -0.024362
     3  O   -0.327129
     4  H    0.084198
     5  H    0.072715
     6  H    0.088328
     7  H    0.060721
     8  H    0.104421
     9  H    0.194946
 Sum of Mulliken charges =  -0.00000

 Dipole moment (field-independent basis, Debye):
    X=             -1.3684    Y=             -0.1115    Z=              0.9775  Tot=              1.6853
 N-N= 6.569027786636D+01 E-N=-7.899584655748D+01  KE=-3.846029384582D+01
 1\1\GINC-BRAINIAC-IA-0001\FOpt\RAM1\ZDO\C2H6O1\ROOT\26-Jun-2017\0\\# o
 pt ram1\\Mol\\0,1\C,1.0801236428,-0.0084386859,-0.0649385116\C,2.59133
 0235,-0.0184809186,-0.076860642\O,3.1210915081,0.5523500876,-1.2590947
 742\H,0.7036603582,-0.3914464491,0.9129436921\H,0.6760796306,-0.654432
 9047,-0.8812504835\H,0.6975507167,1.0293129612,-0.2173202068\H,2.97733
 73749,-1.0670849631,0.0436766686\H,3.0058673679,0.6212724627,0.7487534
 95\H,2.7373591658,0.0755484099,-2.0043092378\\Version=ES64L-G16RevA.03
 \State=1-A\HF=-0.1024333\RMSD=2.628e-09\RMSF=1.778e-05\Dipole=-0.46328
 5,-0.4610547,0.1115193\PG=C01 [X(C2H6O1)]\\@

 Normal termination of Gaussian 16 at Mon Jun 26 17:12:37 2017.
