 Gaussian 09, Revision A.02,
 Gaussian 09:  EM64L-G09RevA.02 11-Jun-2009

 -----------------------------
 #HF/6-31G* opt=(MaxCycle=600)
 -----------------------------

 ---
 Mol
 ---
 Symbolic Z-matrix:
 Charge =  0 Multiplicity = 1

 SCF Done:  E(RHF) =  -154.071009226     A.U. after   12 cycles
 SCF Done:  E(RHF) =  -154.075442369     A.U. after   11 cycles
 SCF Done:  E(RHF) =  -154.075526379     A.U. after   10 cycles
 SCF Done:  E(RHF) =  -154.075557932     A.U. after   10 cycles
 SCF Done:  E(RHF) =  -154.075571223     A.U. after   10 cycles
 SCF Done:  E(RHF) =  -154.075575083     A.U. after    9 cycles
 SCF Done:  E(RHF) =  -154.075575740     A.U. after    8 cycles
 Optimization completed.
    -- Stationary point found.

                         Standard orientation:
 ---------------------------------------------------------------------
 Center     Atomic      Atomic             Coordinates (Angstroms)
 Number     Number       Type             X           Y           Z
 ---------------------------------------------------------------------
      1          6           0       -1.209046   -0.236508   -0.019179
      2          6           0        0.089914    0.552926    0.044913
      3          8           0        1.222001   -0.262491   -0.110005
      4          1           0       -2.067376    0.423867    0.062066
      5          1           0       -1.267689   -0.957742    0.792471
      6          1           0       -1.276369   -0.778020   -0.956280
      7          1           0        0.145553    1.112980    0.976647
      8          1           0        0.131481    1.270427   -0.764028
      9          1           0        1.273182   -0.870089    0.614761
 ---------------------------------------------------------------------

 The electronic state is 1-A.
 Alpha  occ. eigenvalues --  -20.55338 -11.27062 -11.21497  -1.36050  -1.01212
 Alpha  occ. eigenvalues --   -0.85066  -0.68995  -0.62473  -0.60497  -0.54446
 Alpha  occ. eigenvalues --   -0.52667  -0.47743  -0.43623
 Alpha virt. eigenvalues --    0.22323   0.27278   0.29762   0.31192   0.31980
 Alpha virt. eigenvalues --    0.34305   0.40734   0.42497   0.72898   0.74882
 Alpha virt. eigenvalues --    0.79045   0.81836   0.89763   0.91718   1.07789

 Mulliken atomic charges:
              1
     1  C   -0.502732
     2  C    0.008917
     3  O   -0.733920
     4  H    0.159314
     5  H    0.149262
     6  H    0.177255
     7  H    0.138795
     8  H    0.169826
     9  H    0.433283
 Sum of Mulliken atomic charges =   0.00000

 Dipole moment (field-independent basis, Debye):
    X=             -1.2301    Y=             -0.1340    Z=              1.3378  Tot=              1.8223
 Quadrupole moment (field-independent basis, Debye-Ang):
   XX=            -22.3062   YY=            -18.5228   ZZ=            -19.0326
   XY=             -1.0461   XZ=              2.0582   YZ=             -1.5002

 Normal termination of Gaussian 09 at Fri Jun 23 12:08:59 2017.
