 Gaussian 09, Revision A.02,
 Gaussian 09:  EM64L-G09RevA.02 11-Jun-2009

 ----------------------------------
 #HF/6-31G* nosymm opt=ModRedundant
 ----------------------------------

 -----------------
 Mol dihedral scan
 -----------------
 Symbolic Z-matrix:
 Charge =  0 Multiplicity = 1

 SCF Done:  E(RHF) =  -154.074662615     A.U. after   12 cycles
 SCF Done:  E(RHF) =  -154.074716463     A.U. after    9 cycles
 SCF Done:  E(RHF) =  -154.074727746     A.U. after    9 cycles
 Optimization completed.
    -- Stationary point found.
 SCF Done:  E(RHF) =  -154.074158437     A.U. after   11 cycles
 SCF Done:  E(RHF) =  -154.075134970     A.U. after   10 cycles
 SCF Done:  E(RHF) =  -154.075215515     A.U. after   10 cycles
 SCF Done:  E(RHF) =  -154.075216080     A.U. after    8 cycles
 Optimization completed.
 SCF Done:  E(RHF) =  -154.074512233     A.U. after   11 cycles
 SCF Done:  E(RHF) =  -154.075520132     A.U. after   10 cycles
 SCF Done:  E(RHF) =  -154.075521714     A.U. after    9 cycles
 SCF Done:  E(RHF) =  -154.074764594     A.U. after    8 cycles
 SCF Done:  E(RHF) =  -154.073102708     A.U. after   11 cycles
 SCF Done:  E(RHF) =  -154.074116296     A.U. after   10 cycles
 SCF Done:  E(RHF) =  -154.074117836     A.U. after    9 cycles
 SCF Done:  E(RHF) =  -154.072449726     A.U. after   11 cycles
 SCF Done:  E(RHF) =  -154.073489014     A.U. after   10 cycles
 SCF Done:  E(RHF) =  -154.073493546     A.U. after    8 cycles
    -- Stationary point found.
 SCF Done:  E(RHF) =  -154.071978848     A.U. after   11 cycles
 SCF Done:  E(RHF) =  -154.073035586     A.U. after   10 cycles
 SCF Done:  E(RHF) =  -154.073043933     A.U. after    9 cycles
 Optimization completed.
    -- Stationary point found.

                          Input orientation:
 ---------------------------------------------------------------------
 Center     Atomic      Atomic             Coordinates (Angstroms)
 Number     Number       Type             X           Y           Z
 ---------------------------------------------------------------------
      1          6           0       -1.125846   -0.242156    0.033479
      2          6           0        0.100362    0.656225    0.085829
      3          8           0        1.306810   -0.065038    0.136696
      4          1           0       -2.034664    0.348642   -0.015150
      5          1           0       -1.184440   -0.868848    0.919561
      6          1           0       -1.095536   -0.886622   -0.840554
      7          1           0        0.042154    1.305048    0.955031
      8          1           0        0.133255    1.292162   -0.791853
      9          1           0        1.133484   -0.982962    0.283161
 ---------------------------------------------------------------------

 Alpha  occ. eigenvalues --  -20.55011 -11.27017 -11.22322  -1.35775  -1.01590
 Alpha  occ. eigenvalues --   -0.85702  -0.66237  -0.64464  -0.62170  -0.53686
 Alpha  occ. eigenvalues --   -0.53189  -0.48078  -0.43287
 Alpha virt. eigenvalues --    0.22773   0.26740   0.29529   0.30457   0.31852
 Alpha virt. eigenvalues --    0.34460   0.39338   0.43689   0.72399   0.74253
 Alpha virt. eigenvalues --    0.80591   0.81651   0.90404   0.91411   1.11036

 Mulliken atomic charges:
              1
     1  C   -0.541802
     2  C    0.043577
     3  O   -0.750504
     4  H    0.172827
     5  H    0.162134
     6  H    0.169384
     7  H    0.147969
     8  H    0.156063
     9  H    0.440352
 Sum of Mulliken atomic charges =   0.00000

 Dipole moment (field-independent basis, Debye):
    X=             -1.8366    Y=             -0.8075    Z=              0.1600  Tot=              2.0126
 Quadrupole moment (field-independent basis, Debye-Ang):
   XX=            -23.4412   YY=            -17.5041   ZZ=            -19.9093
   XY=             -1.7548   XZ=              0.0436   YZ=             -0.5548

 Normal termination of Gaussian 09 at Fri Jun 23 12:10:18 2017.
