 Gaussian 09, Revision A.02,
 Gaussian 09:  EM64L-G09RevA.02 11-Jun-2009

 ----------------------------------
 #HF/6-31G* nosymm opt=ModRedundant
 ----------------------------------

 -----------------
 Mol dihedral scan
 -----------------
 Symbolic Z-matrix:
 Charge =  0 Multiplicity = 1

 SCF Done:  E(RHF) =  -154.072273848     A.U. after   12 cycles
 SCF Done:  E(RHF) =  -154.072717561     A.U. after   11 cycles
 SCF Done:  E(RHF) =  -154.072880204     A.U. after   10 cycles
 SCF Done:  E(RHF) =  -154.072880608     A.U. after    8 cycles
 Optimization completed.
    -- Stationary point found.
 SCF Done:  E(RHF) =  -154.071967335     A.U. after   11 cycles
 SCF Done:  E(RHF) =  -154.072993528     A.U. after   10 cycles
 SCF Done:  E(RHF) =  -154.073041055     A.U. after    9 cycles
 SCF Done:  E(RHF) =  -154.073044031     A.U. after    8 cycles
 Optimization completed.
 SCF Done:  E(RHF) =  -154.072432241     A.U. after   11 cycles
 SCF Done:  E(RHF) =  -154.073491558     A.U. after   10 cycles
 SCF Done:  E(RHF) =  -154.075281228     A.U. after    9 cycles
 SCF Done:  E(RHF) =  -154.074588594     A.U. after   10 cycles
 SCF Done:  E(RHF) =  -154.075547120     A.U. after   10 cycles
 SCF Done:  E(RHF) =  -154.075551125     A.U. after    9 cycles
 SCF Done:  E(RHF) =  -154.074557897     A.U. after   10 cycles
 SCF Done:  E(RHF) =  -154.075517043     A.U. after   10 cycles
 SCF Done:  E(RHF) =  -154.075521803     A.U. after    9 cycles
    -- Stationary point found.
 SCF Done:  E(RHF) =  -154.074229306     A.U. after   10 cycles
 SCF Done:  E(RHF) =  -154.075211022     A.U. after   10 cycles
 SCF Done:  E(RHF) =  -154.075216072     A.U. after    9 cycles
 Optimization completed.
    -- Stationary point found.

                          Input orientation:
 ---------------------------------------------------------------------
 Center     Atomic      Atomic             Coordinates (Angstroms)
 Number     Number       Type             X           Y           Z
 ---------------------------------------------------------------------
      1          6           0       -1.281055   -0.227857    0.026133
      2          6           0        0.071808    0.465968    0.071183
      3          8           0        1.132466   -0.448979    0.181407
      4          1           0       -2.087862    0.498631   -0.009344
      5          1           0       -1.412882   -0.848587    0.905314
      6          1           0       -1.364535   -0.864244   -0.850958
      7          1           0        0.132863    1.101389    0.945479
      8          1           0        0.202983    1.104998   -0.799538
      9          1           0        1.322733   -0.817549   -0.669326
 ---------------------------------------------------------------------

 Alpha  occ. eigenvalues --  -20.55313 -11.27073 -11.21215  -1.35996  -1.01118
 Alpha  occ. eigenvalues --   -0.84763  -0.69541  -0.62599  -0.59356  -0.54769
 Alpha  occ. eigenvalues --   -0.52490  -0.47575  -0.43621
 Alpha virt. eigenvalues --    0.22202   0.27171   0.30019   0.31404   0.32180
 Alpha virt. eigenvalues --    0.34262   0.41342   0.42026   0.72958   0.74871
 Alpha virt. eigenvalues --    0.79510   0.81821   0.89672   0.91917   1.07814

 Mulliken atomic charges:
              1
     1  C   -0.492912
     2  C    0.002644
     3  O   -0.734836
     4  H    0.155129
     5  H    0.176890
     6  H    0.150720
     7  H    0.168548
     8  H    0.138482
     9  H    0.435335
 Sum of Mulliken atomic charges =   0.00000

 Dipole moment (field-independent basis, Debye):
    X=             -0.8740    Y=              0.3733    Z=             -1.5405  Tot=              1.8101
 Quadrupole moment (field-independent basis, Debye-Ang):
   XX=            -21.4218   YY=            -19.3895   ZZ=            -18.7829
   XY=             -0.3953   XZ=             -2.5773   YZ=              1.6310

 Normal termination of Gaussian 09 at Fri Jun 23 14:11:38 2017.
