 Gaussian 09, Revision A.02,
 Gaussian 09:  EM64L-G09RevA.02 11-Jun-2009

 -------------------------------------------------------
 #HF/6-31G* nosymm SCF=Tight opt=(Z-MATRIX,MaxCycle=200)
 -------------------------------------------------------

 ---------------
 Mol-Water Dimer
 ---------------
 Symbolic Z-matrix:
 Charge =  0 Multiplicity = 1

 SCF Done:  E(RHF) =  -230.094010027     A.U. after   12 cycles
 SCF Done:  E(RHF) =  -230.094195323     A.U. after   12 cycles
 SCF Done:  E(RHF) =  -230.094355668     A.U. after   12 cycles
 SCF Done:  E(RHF) =  -230.094415044     A.U. after   12 cycles
 SCF Done:  E(RHF) =  -230.094421612     A.U. after    9 cycles
 SCF Done:  E(RHF) =  -230.094423333     A.U. after    7 cycles
 SCF Done:  E(RHF) =  -230.094423837     A.U. after    8 cycles
 SCF Done:  E(RHF) =  -230.094425416     A.U. after    7 cycles
 SCF Done:  E(RHF) =  -230.094425897     A.U. after    8 cycles
 Optimization completed.
    -- Stationary point found.

                         Z-Matrix orientation:
 ---------------------------------------------------------------------
 Center     Atomic      Atomic             Coordinates (Angstroms)
 Number     Number       Type             X           Y           Z
 ---------------------------------------------------------------------
      1          6           0       -1.209050   -0.236510   -0.019180
      2          6           0        0.089910    0.552930    0.044910
      3          8           0        1.222000   -0.262490   -0.110010
      4          1           0       -2.067380    0.423870    0.062070
      5          1           0       -1.267690   -0.957740    0.792470
      6          1           0       -1.276370   -0.778020   -0.956280
      7          1           0        0.145550    1.112980    0.976650
      8          1           0        0.131480    1.270430   -0.764030
      9          1           0        1.273180   -0.870090    0.614760
     10         -1           0        0.245700   -0.341150    1.026060
     11         -1           0        2.041350    0.728250    0.662710
     12          1           0        2.542539   -0.156094   -1.646653
     13         -1           0        3.361890    0.834647   -0.873932
     14          8           0        3.159170   -0.106412   -2.364194
     15          1           0        2.912268   -0.800772   -2.959567
 ---------------------------------------------------------------------

 Alpha  occ. eigenvalues --  -20.57865 -20.52107 -11.28480 -11.22605  -1.38467
 Alpha  occ. eigenvalues --   -1.31191  -1.02549  -0.86560  -0.71355  -0.68264
 Alpha  occ. eigenvalues --   -0.63974  -0.62154  -0.56314  -0.54451  -0.53228
 Alpha  occ. eigenvalues --   -0.49294  -0.46503  -0.45631
 Alpha virt. eigenvalues --    0.20402   0.25627   0.26263   0.28844   0.30097
 Alpha virt. eigenvalues --    0.31047   0.33137   0.38415   0.41077   0.44584
 Alpha virt. eigenvalues --    0.71739   0.73795   0.77800   0.80185   0.88735

 Mulliken atomic charges:
              1
     1  C   -0.505052
     2  C    0.002696
     3  O   -0.752228
     4  H    0.167410
     5  H    0.153073
     6  H    0.177136
     7  H    0.150522
     8  H    0.180792
     9  H    0.445430
    10  H    0.482777
    11  O   -0.922504
    12  H    0.419948
 Sum of Mulliken atomic charges =   0.00000

 Dipole moment (field-independent basis, Debye):
    X=             -3.3229    Y=             -1.4600    Z=              2.0087  Tot=              4.1483
 Quadrupole moment (field-independent basis, Debye-Ang):
   XX=            -40.0215   YY=            -23.9984   ZZ=            -25.9853
   XY=             -4.7895   XZ=              7.2017   YZ=              2.7417

 Normal termination of Gaussian 09 at Fri Jun 23 12:09:12 2017.
