 Gaussian 09, Revision A.02,
 Gaussian 09:  EM64L-G09RevA.02 11-Jun-2009

 ---------------------------
 #HF/6-31G* nosymm SCF=Tight
 ---------------------------

 -----
 Water
 -----
 Symbolic Z-matrix:
 Charge =  0 Multiplicity = 1

                          Input orientation:
 ---------------------------------------------------------------------
 Center     Atomic      Atomic             Coordinates (Angstroms)
 Number     Number       Type             X           Y           Z
 ---------------------------------------------------------------------
      1          8           0        0.000000    0.000000    0.000000
      2          1           0        0.947400    0.000000    0.000000
      3          1           0       -0.253810    0.912770    0.000000
 ---------------------------------------------------------------------

 SCF Done:  E(RHF) =  -76.0107464491     A.U. after   10 cycles

 Alpha  occ. eigenvalues --  -20.55787  -1.34605  -0.71430  -0.57070  -0.49819
 Alpha virt. eigenvalues --    0.21301   0.30685   1.03185   1.13334   1.16804
 Alpha virt. eigenvalues --    1.17822   1.38512   1.43105   2.02071   2.03056
 Alpha virt. eigenvalues --    2.06730   2.63557   2.96568   3.97774

 Mulliken atomic charges:
              1
     1  O   -0.868831
     2  H    0.434416
     3  H    0.434416
 Sum of Mulliken atomic charges =   0.00000

 Dipole moment (field-independent basis, Debye):
    X=              1.3300    Y=              1.7503    Z=              0.0000  Tot=              2.1983
 Quadrupole moment (field-independent basis, Debye-Ang):
   XX=             -4.6140   YY=             -4.9876   ZZ=             -7.2059
   XY=             -0.6718   XZ=              0.0000   YZ=              0.0000

 Normal termination of Gaussian 09 at Wed Jan 18 09:56:00 2017.
