 Gaussian 09, Revision A.02,
 Gaussian 09:  EM64L-G09RevA.02 11-Jun-2009

 -------------------------------------------------------
 #HF/6-31G* nosymm SCF=Tight opt=(Z-MATRIX,MaxCycle=200)
 -------------------------------------------------------

 ---------------
 Mol-Water Dimer
 ---------------
 Symbolic Z-matrix:
 Charge =  0 Multiplicity = 1

 SCF Done:  E(RHF) =  -230.093661622     A.U. after   12 cycles
 SCF Done:  E(RHF) =  -230.093808415     A.U. after   12 cycles
 SCF Done:  E(RHF) =  -230.094070067     A.U. after   13 cycles
 SCF Done:  E(RHF) =  -230.094247192     A.U. after   12 cycles
 SCF Done:  E(RHF) =  -230.094329825     A.U. after   10 cycles
 SCF Done:  E(RHF) =  -230.094319865     A.U. after   13 cycles
 SCF Done:  E(RHF) =  -230.094352086     A.U. after   13 cycles
 SCF Done:  E(RHF) =  -230.094415096     A.U. after   11 cycles
 SCF Done:  E(RHF) =  -230.094425882     A.U. after   11 cycles
 SCF Done:  E(RHF) =  -230.094425900     A.U. after    7 cycles
 Optimization completed.
    -- Stationary point found.

                         Z-Matrix orientation:
 ---------------------------------------------------------------------
 Center     Atomic      Atomic             Coordinates (Angstroms)
 Number     Number       Type             X           Y           Z
 ---------------------------------------------------------------------
      1          6           0       -1.209050   -0.236510   -0.019180
      2          6           0        0.089910    0.552930    0.044910
      3          8           0        1.222000   -0.262490   -0.110010
      4          1           0       -2.067380    0.423870    0.062070
      5          1           0       -1.267690   -0.957740    0.792470
      6          1           0       -1.276370   -0.778020   -0.956280
      7          1           0        0.145550    1.112980    0.976650
      8          1           0        0.131480    1.270430   -0.764030
      9          1           0        1.273180   -0.870090    0.614760
     10         -1           0        0.245700   -0.341150    1.026060
     11         -1           0        2.041350    0.728250    0.662710
     12          1           0        2.542142   -0.156126   -1.646190
     13         -1           0        3.361493    0.834615   -0.873470
     14          8           0        3.158773   -0.106444   -2.363731
     15          1           0        2.912752   -0.801712   -2.958411
 ---------------------------------------------------------------------

 Alpha  occ. eigenvalues --  -20.57866 -20.52105 -11.28480 -11.22605  -1.38468
 Alpha  occ. eigenvalues --   -1.31189  -1.02550  -0.86560  -0.71356  -0.68263
 Alpha  occ. eigenvalues --   -0.63974  -0.62154  -0.56315  -0.54451  -0.53227
 Alpha  occ. eigenvalues --   -0.49294  -0.46501  -0.45632
 Alpha virt. eigenvalues --    0.20402   0.25628   0.26263   0.28844   0.30097
 Alpha virt. eigenvalues --    0.31047   0.33137   0.38416   0.41077   0.44592
 Alpha virt. eigenvalues --    0.71739   0.73795   0.77799   0.80184   0.88735

 Mulliken atomic charges:
              1
     1  C   -0.505055
     2  C    0.002696
     3  O   -0.752247
     4  H    0.167414
     5  H    0.153071
     6  H    0.177143
     7  H    0.150525
     8  H    0.180807
     9  H    0.445434
    10  H    0.482823
    11  O   -0.922547
    12  H    0.419937
 Sum of Mulliken atomic charges =   0.00000

 Dipole moment (field-independent basis, Debye):
    X=             -3.3216    Y=             -1.4616    Z=              2.0102  Tot=              4.1485
 Quadrupole moment (field-independent basis, Debye-Ang):
   XX=            -40.0117   YY=            -23.9945   ZZ=            -25.9940
   XY=             -4.7954   XZ=              7.2000   YZ=              2.7450

 Normal termination of Gaussian 09 at Wed Jan 18 09:56:13 2017.
